/*--------------------------------*- C++ -*----------------------------------*\
| =========                 |                                                 |
| \\      /  F ield         | OpenFOAM: The Open Source CFD Toolbox           |
|  \\    /   O peration     | Version:  v2412                                 |
|   \\  /    A nd           | Website:  www.openfoam.com                      |
|    \\/     M anipulation  |                                                 |
\*---------------------------------------------------------------------------*/
// WRITTEN BY CHRIS DILLOW | NOVEMBER 29, 2025 | TROPOCHIEF RC PLANE PROJECT
// FIELD: Specific Dissipation Omega
FoamFile
{
    version 2.0;
    format ascii;
    class volScalarField;
    location "0";
    object omega;
}

dimensions [0 0 -1 0 0 0 0]; // 1/s

// ~1% turbulence at 30 m/s, RC-sized aircraft
internalField uniform 50;

boundaryField
{
    inlet
    {
        type fixedValue;
        value uniform 50;
    }

    outlet
    {
        type zeroGradient;
    }

    top
    {
        type zeroGradient;
    }

    bottom
    {
        type zeroGradient;
    }

    airfoil
    {
        type omegaWallFunction;
        value uniform 50;
    }

    frontAndBack
    {
        type empty;
    }
}